 Gaussian 16, Revision A.03,
 Gaussian 16:  ES64L-G16RevA.03 25-Dec-2016

 -------------------------------------------
 #p b3lyp/6-311g(d,p) pop=(chelpg,readradii)
 -------------------------------------------

 ---------
 cks03.log
 ---------
 Symbolic Z-matrix:
 Charge =  0 Multiplicity = 1

                         Standard orientation:
 ---------------------------------------------------------------------
 Center     Atomic      Atomic             Coordinates (Angstroms)
 Number     Number       Type             X           Y           Z
 ---------------------------------------------------------------------
      1          6           0       -3.680570   -2.456609    1.205919
      2          6           0       -3.316489    0.723431   -2.269831
      3          6           0       -2.725200   -0.411779   -1.719051
      4          6           0       -3.427469    1.894071   -1.520851
      5          6           0       -2.338939    0.784651    0.348899
      6          6           0       -2.239050   -0.386629   -0.407331
      7          6           0       -2.936009    1.918301   -0.212141
      8          6           0        0.783290   -1.342149   -0.333191
      9          6           0        2.802280   -0.607650   -0.731031
     10          6           0        4.592361    0.764530    0.883979
     11          6           0        4.932911    0.436070   -0.397901
     12          6           0        3.300321    0.431940    1.492709
     13          6           0        6.267921    0.802650   -0.962201
     14          6           0       -2.622520   -2.764569    0.271929
     15          6           0       -1.593010   -1.609969    0.200489
     16          7           0       -4.539210   -2.229899    1.956599
     17          7           0        1.789660   -1.273820   -1.359501
     18          7           0        1.168250   -0.731409    0.848749
     19          7           0        2.413280   -0.276610    0.615719
     20          7           0        4.053470   -0.249650   -1.227241
     21          7           0       -0.409350   -2.071149   -0.520681
     22          8           0        2.968811    0.717660    2.646349
     23         17           0       -3.062339    3.341661    0.707609
     24          1           0       -3.699619    0.697811   -3.300951
     25          1           0       -2.646430   -1.329659   -2.321111
     26          1           0       -3.897229    2.788741   -1.956571
     27          1           0       -1.947489    0.816471    1.378789
     28          1           0        5.286191    1.308030    1.540559
     29          1           0        6.867611    1.347730   -0.192251
     30          1           0        6.149611    1.466070   -1.855421
     31          1           0        6.831691   -0.114240   -1.267931
     32          1           0       -3.068440   -2.951489   -0.743211
     33          1           0       -2.109650   -3.709659    0.607729
     34          1           0       -1.285900   -1.373049    1.265069
     35          1           0        4.295560   -0.498070   -2.158511
     36          1           0       -0.598310   -2.228209   -1.494241
 ---------------------------------------------------------------------

 SCF Done:  E(RB3LYP) =  -1443.59416621     A.U. after   15 cycles

 The electronic state is 1-A.
 Alpha  occ. eigenvalues -- -101.55830 -19.09549 -14.42114 -14.40970 -14.35570
 Alpha  occ. eigenvalues --  -14.34513 -14.33209 -14.31100 -10.31415 -10.29655
 Alpha  occ. eigenvalues --  -10.28843 -10.27169 -10.24905 -10.24411 -10.23447
 Alpha  occ. eigenvalues --  -10.22054 -10.21075 -10.20374 -10.20097 -10.19835
 Alpha  occ. eigenvalues --  -10.19674 -10.19641 -10.19565  -9.47378  -7.23816
 Alpha  occ. eigenvalues --   -7.22872  -7.22819  -1.08881  -1.02804  -1.00988
 Alpha  occ. eigenvalues --   -0.96727  -0.91225  -0.90820  -0.90254  -0.85832
 Alpha  occ. eigenvalues --   -0.83752  -0.82647  -0.81071  -0.76974  -0.74589
 Alpha  occ. eigenvalues --   -0.74206  -0.69167  -0.66957  -0.65610  -0.64346
 Alpha  occ. eigenvalues --   -0.62756  -0.60295  -0.58790  -0.56238  -0.54743
 Alpha  occ. eigenvalues --   -0.53050  -0.52658  -0.50641  -0.50239  -0.49494
 Alpha  occ. eigenvalues --   -0.48088  -0.47395  -0.46726  -0.46482  -0.45881
 Alpha  occ. eigenvalues --   -0.44405  -0.44128  -0.43568  -0.43301  -0.41704
 Alpha  occ. eigenvalues --   -0.40717  -0.40691  -0.40193  -0.40057  -0.38270
 Alpha  occ. eigenvalues --   -0.37176  -0.36427  -0.34960  -0.34514  -0.33871
 Alpha  occ. eigenvalues --   -0.32951  -0.32673  -0.31835  -0.30241  -0.29829
 Alpha  occ. eigenvalues --   -0.27454  -0.26908  -0.26010  -0.25490  -0.23054
 Alpha virt. eigenvalues --   -0.05329  -0.03654  -0.02994  -0.02727   0.00477
 Alpha virt. eigenvalues --    0.00937   0.01849   0.02868   0.03479   0.03930
 Alpha virt. eigenvalues --    0.04642   0.05354   0.05495   0.06814   0.07471

 Mulliken charges:
               1
     1  C    0.040101
     2  C   -0.089604
     3  C   -0.060949
     4  C    0.020880
     5  C    0.075372
     6  C   -0.066970
     7  C   -0.237694
     8  C    0.422469
     9  C    0.568084
    10  C   -0.277419
    11  C    0.186505
    12  C    0.461699
    13  C   -0.268006
    14  C   -0.143202
    15  C   -0.113475
    16  N   -0.222270
    17  N   -0.414383
    18  N   -0.226884
    19  N   -0.352284
    20  N   -0.479477
    21  N   -0.387516
    22  O   -0.332920
    23  Cl  -0.037010
    24  H    0.102342
    25  H    0.081662
    26  H    0.118339
    27  H    0.127935
    28  H    0.126153
    29  H    0.136870
    30  H    0.137316
    31  H    0.137005
    32  H    0.148946
    33  H    0.169405
    34  H    0.177879
    35  H    0.257644
    36  H    0.213454
 Sum of Mulliken charges =  -0.00000

 Dipole moment (field-independent basis, Debye):
    X=              6.4019    Y=             -0.8947    Z=             -8.4735  Tot=             10.6577
 Quadrupole moment (field-independent basis, Debye-Ang):
   XX=           -120.8953   YY=           -138.5950   ZZ=           -147.3180
   XY=              1.2492   XZ=              1.0613   YZ=              1.8930

 ESP charges:
               1
     1  C    0.281551
     2  C   -0.051779
     3  C   -0.223381
     4  C   -0.122844
     5  C   -0.161949
     6  C    0.099309
     7  C    0.145123
     8  C    0.726248
     9  C    0.630020
    10  C   -0.614623
    11  C    0.436552
    12  C    0.710250
    13  C   -0.256463
    14  C    0.003956
    15  C    0.169400
    16  N   -0.447365
    17  N   -0.715286
    18  N   -0.501483
    19  N   -0.085859
    20  N   -0.632392
    21  N   -0.634562
    22  O   -0.509915
    23  Cl  -0.116626
    24  H    0.098017
    25  H    0.130100
    26  H    0.103190
    27  H    0.111398
    28  H    0.213609
    29  H    0.107572
    30  H    0.077598
    31  H    0.082602
    32  H    0.041157
    33  H    0.063948
    34  H    0.089765
    35  H    0.421690
    36  H    0.331472
 Sum of ESP charges =  -0.00000

 Normal termination of Gaussian 16 at Sat Apr  4 00:55:19 2020.
