 Gaussian 16, Revision A.03,
 Gaussian 16:  ES64L-G16RevA.03 25-Dec-2016

 -------------------------------------------
 #p b3lyp/6-311g(d,p) pop=(chelpg,readradii)
 -------------------------------------------

 ---------
 cks08.log
 ---------
 Symbolic Z-matrix:
 Charge =  0 Multiplicity = 1

                         Standard orientation:
 ---------------------------------------------------------------------
 Center     Atomic      Atomic             Coordinates (Angstroms)
 Number     Number       Type             X           Y           Z
 ---------------------------------------------------------------------
      1          6           0       -5.236319   -1.052175   -2.023530
      2          6           0       -3.625049   -1.519623    2.380710
      3          6           0        2.573433   -3.640827   -0.229860
      4          6           0        2.173211   -1.343747    0.449500
      5          6           0       -3.949000   -0.609524    1.375430
      6          6           0       -2.574778   -2.420132    2.208960
      7          6           0        1.251384   -3.963628    0.046020
      8          6           0        0.846281   -1.651609    0.732900
      9          6           0       -2.178889   -1.492342   -0.017720
     10          6           0        3.039482   -2.330316   -0.034830
     11          6           0       -3.234700   -0.596913    0.172010
     12          6           0        0.389493   -2.960439    0.527920
     13          6           0       -1.860268   -2.393622    1.004800
     14          6           0       -1.984883    2.160278   -0.343710
     15          6           0        0.185267    2.265051   -0.558460
     16          6           0        2.045785    4.016963    0.516690
     17          6           0        2.452716    2.983733   -0.280140
     18          6           0        0.643795    4.281481    0.853430
     19          6           0        4.442162   -2.036945   -0.341420
     20          6           0        3.898837    2.755334   -0.580740
     21          6           0        6.153240   -0.390473   -0.502530
     22          6           0       -5.041211    0.218795   -1.365080
     23          6           0       -3.568161    0.389097   -0.923370
     24          7           0       -5.411158   -2.068485   -2.560780
     25          7           0       -0.872812    1.501939   -0.966170
     26          7           0       -1.612754    3.262279    0.414210
     27          7           0       -0.276694    3.340150    0.280040
     28          7           0        1.538007    2.103532   -0.845480
     29          7           0       -3.327442    1.783087   -0.561630
     30          8           0        0.249364    5.210221    1.563290
     31          8           0        5.334342   -2.825364   -0.666430
     32          8           0       -0.895837   -3.387461    0.818620
     33          8           0        4.781320   -0.705625   -0.256070
     34          1           0       -4.198369   -1.525804    3.320150
     35          1           0        3.268804   -4.410326   -0.605600
     36          1           0        2.548800   -0.320777    0.612540
     37          1           0       -4.773061    0.102645    1.534460
     38          1           0       -2.310857   -3.146382    2.991040
     39          1           0        0.870555   -4.984639   -0.101180
     40          1           0        0.160930   -0.877649    1.109700
     41          1           0       -1.593439   -1.487571   -0.950190
     42          1           0        2.767535    4.718473    0.958050
     43          1           0        4.527246    3.438685    0.041330
     44          1           0        4.106486    2.963385   -1.660550
     45          1           0        4.191998    1.695755   -0.356730
     46          1           0        6.205459    0.714177   -0.339400
     47          1           0        6.422940   -0.663883   -1.550950
     48          1           0        6.807360   -0.940433    0.216100
     49          1           0       -5.727231    0.284754   -0.476690
     50          1           0       -5.320562    1.041575   -2.082450
     51          1           0       -2.921981    0.162607   -1.827070
     52          1           0        1.827768    1.341092   -1.415090
     53          1           0       -3.924883    2.092136    0.184100
 ---------------------------------------------------------------------

 SCF Done:  E(RB3LYP) =  -1518.24827076     A.U. after   15 cycles

 The electronic state is 1-A.
 Alpha  occ. eigenvalues --  -19.18548 -19.17496 -19.11299 -19.09743 -14.42396
 Alpha  occ. eigenvalues --  -14.41127 -14.35897 -14.34634 -14.33700 -14.31685
 Alpha  occ. eigenvalues --  -10.31686 -10.31318 -10.29846 -10.29093 -10.27230
 Alpha  occ. eigenvalues --  -10.26866 -10.25761 -10.25406 -10.24414 -10.24074
 Alpha  occ. eigenvalues --  -10.21682 -10.21681 -10.21017 -10.20829 -10.20742
 Alpha  occ. eigenvalues --  -10.20572 -10.20190 -10.20179 -10.20147 -10.19988
 Alpha  occ. eigenvalues --  -10.19983 -10.19920 -10.19859  -1.11232  -1.10134
 Alpha  occ. eigenvalues --   -1.09136  -1.03021  -1.01566  -1.01138  -0.97106
 Alpha  occ. eigenvalues --   -0.91550  -0.90669  -0.89052  -0.87975  -0.84395
 Alpha  occ. eigenvalues --   -0.82661  -0.81638  -0.79927  -0.77957  -0.77487
 Alpha  occ. eigenvalues --   -0.76476  -0.74245  -0.72939  -0.69021  -0.68119
 Alpha  occ. eigenvalues --   -0.66724  -0.65605  -0.64656  -0.63939  -0.62875
 Alpha  occ. eigenvalues --   -0.60424  -0.59021  -0.58157  -0.57696  -0.56826
 Alpha  occ. eigenvalues --   -0.54649  -0.53761  -0.53403  -0.52325  -0.51214
 Alpha  occ. eigenvalues --   -0.50795  -0.50534  -0.49423  -0.49263  -0.48657
 Alpha  occ. eigenvalues --   -0.48060  -0.47619  -0.46779  -0.46369  -0.46130
 Alpha  occ. eigenvalues --   -0.45766  -0.45260  -0.45089  -0.44641  -0.43559
 Alpha  occ. eigenvalues --   -0.43343  -0.42828  -0.42447  -0.41714  -0.41305
 Alpha  occ. eigenvalues --   -0.40980  -0.40809  -0.40486  -0.39994  -0.38864
 Alpha  occ. eigenvalues --   -0.38617  -0.37953  -0.37444  -0.36994  -0.36306
 Alpha  occ. eigenvalues --   -0.35162  -0.35020  -0.34194  -0.33523  -0.32894
 Alpha  occ. eigenvalues --   -0.31610  -0.30578  -0.30120  -0.28928  -0.28538
 Alpha  occ. eigenvalues --   -0.27960  -0.27529  -0.27108  -0.26205  -0.24991
 Alpha  occ. eigenvalues --   -0.23141
 Alpha virt. eigenvalues --   -0.06751  -0.05414  -0.04345  -0.03618  -0.03225
 Alpha virt. eigenvalues --   -0.02657   0.00439   0.00783   0.01502   0.02934
 Alpha virt. eigenvalues --    0.03220   0.03272   0.03803   0.04377   0.04749

 Mulliken charges:
               1
     1  C    0.042625
     2  C   -0.089160
     3  C   -0.019455
     4  C   -0.037001
     5  C   -0.056631
     6  C   -0.060347
     7  C   -0.083336
     8  C   -0.107240
     9  C   -0.001620
    10  C   -0.225515
    11  C   -0.068333
    12  C    0.154749
    13  C    0.094523
    14  C    0.415884
    15  C    0.573464
    16  C   -0.278564
    17  C    0.185363
    18  C    0.459738
    19  C    0.442917
    20  C   -0.290505
    21  C   -0.108968
    22  C   -0.154128
    23  C   -0.092136
    24  N   -0.221967
    25  N   -0.420100
    26  N   -0.226895
    27  N   -0.348116
    28  N   -0.479843
    29  N   -0.387564
    30  O   -0.332778
    31  O   -0.362023
    32  O   -0.350037
    33  O   -0.367946
    34  H    0.104750
    35  H    0.118530
    36  H    0.125669
    37  H    0.084739
    38  H    0.109530
    39  H    0.119129
    40  H    0.140915
    41  H    0.115272
    42  H    0.126092
    43  H    0.131871
    44  H    0.139318
    45  H    0.153989
    46  H    0.106819
    47  H    0.124577
    48  H    0.130648
    49  H    0.152659
    50  H    0.170513
    51  H    0.165954
    52  H    0.263675
    53  H    0.216295
 Sum of Mulliken charges =  -0.00000

 Dipole moment (field-independent basis, Debye):
    X=              2.8080    Y=              0.5124    Z=              0.2824  Tot=              2.8683
 Quadrupole moment (field-independent basis, Debye-Ang):
   XX=           -177.8956   YY=           -228.2628   ZZ=           -195.4650
   XY=              7.9269   XZ=            -17.0041   YZ=            -23.0652

 ESP charges:
               1
     1  C    0.293436
     2  C   -0.012761
     3  C    0.009441
     4  C    0.036883
     5  C   -0.261719
     6  C   -0.254347
     7  C   -0.255121
     8  C   -0.218946
     9  C   -0.219781
    10  C   -0.239871
    11  C    0.075121
    12  C    0.434848
    13  C    0.428211
    14  C    0.762981
    15  C    0.467647
    16  C   -0.582619
    17  C    0.325202
    18  C    0.664907
    19  C    0.713217
    20  C   -0.180444
    21  C   -0.025113
    22  C   -0.091392
    23  C    0.333299
    24  N   -0.449408
    25  N   -0.623300
    26  N   -0.568553
    27  N    0.026876
    28  N   -0.413849
    29  N   -0.724055
    30  O   -0.504942
    31  O   -0.523378
    32  O   -0.426484
    33  O   -0.361877
    34  H    0.099284
    35  H    0.092726
    36  H    0.044486
    37  H    0.133762
    38  H    0.142728
    39  H    0.154106
    40  H    0.069608
    41  H    0.085324
    42  H    0.209731
    43  H    0.091673
    44  H    0.061519
    45  H    0.089315
    46  H    0.049062
    47  H    0.081916
    48  H    0.090943
    49  H    0.070256
    50  H    0.084736
    51  H    0.050413
    52  H    0.318460
    53  H    0.345842
 Sum of ESP charges =   0.00000

 Normal termination of Gaussian 16 at Fri Apr  3 22:43:13 2020.
